<?xml version="1.0" encoding="UTF-8"?>

<!-- generated on 2023-12-10 03:17:45 by Eclipse SUMO sumo Version 1.18.0
<configuration xmlns:xsi="http://www.w3.org/2001/XMLSchema-instance" xsi:noNamespaceSchemaLocation="http://sumo.dlr.de/xsd/sumoConfiguration.xsd">

    <input>
        <net-file value="test4.net.xml"/>
        <route-files value="test4.rou.xml"/>
    </input>

    <output>
        <tripinfo-output value="trips.trips.xml"/>
    </output>

    <time>
        <begin value="0"/>
        <end value="200000"/>
    </time>

    <report>
        <message-log value="sim_message.log"/>
        <duration-log.disable value="true"/>
    </report>

    <traci_server>
        <remote-port value="59984"/>
    </traci_server>

</configuration>
-->

<tripinfos xmlns:xsi="http://www.w3.org/2001/XMLSchema-instance" xsi:noNamespaceSchemaLocation="http://sumo.dlr.de/xsd/tripinfo_file.xsd">
</tripinfos>
